% Model:              Berian_potential.mph
% Version:            COMSOL 6.2.0.339
% Date:               Feb 6 2024, 13:56
% Dimension:          3
% Nodes:              9875
% Expressions:        1
% Description:        Volume
% x                       y                        z                        Magnetic scalar potential
9.900476114655739         -14.799950031235307      -9.107252701889255       1.9541450229259593E-4
9.325379326524782         -15.182922625891697      -9.083840649890885       1.9794517115155833E-4
9.744159683162874         -15.223092370245716      -8.562056456015092       1.9152157266311465E-4
16.402296512353853        -6.727150605060822       9.257975688975119        4.6543825588246826E-5
16.384572181794486        -7.323861292552616       8.826485721226518        5.124012688070314E-5
16.01367117212595         -7.349179501170125       9.463186368797928        4.8076173787249455E-5
-18.60253423794114        -6.105366843576814       4.082917539160013        1.894477994069941E-4
-18.850662550483218       -5.743430915143478       3.4154827961480847       1.9172859817685395E-4
-18.818086480135598       -5.396553545046288       4.093510847864703        1.8523382175656894E-4
17.664450537372776        -6.7276623147314565      -6.5349634269560175      1.1878123216803096E-4
17.718497838416642        -6.087382121309642       -6.999900946383768       1.1860528292939318E-4
17.3682890429195          -6.713023749792281       -7.2991676139356505      1.2406963022866554E-4
-14.089579312435283       -1.3760659273199236      -14.1276394830228        2.689532872925744E-4
-13.522565390620718       -1.3760188705675427      -14.671291603816911      2.6339712804111353E-4
-13.842808715784749       -0.6886366191288578      -14.41882195135887       2.585363163951151E-4
16.306763070571655        -8.328575609058605       -8.045141793929703       1.3989618586365146E-4
16.077929061868026        -8.894205317175725       -7.898943527932234       1.4003252175664107E-4
16.439132068346208        -8.45454692354869        -7.633843930614815       1.3945844184561591E-4
17.478948112101854        -8.07270727772012        5.414588636516669        7.55373067995213E-5
17.14335078008974         -8.333930751754044       6.054017034644405        7.588549149475337E-5
17.45952657653401         -7.663400729829367       6.036325121905968        7.23968805331161E-5
-13.939524336418573       11.036323704136414       9.15910587185839         9.14589059590361E-5
-14.384085571450454       10.494408120060914       9.108538877492387        9.45507436868711E-5
-14.385174445446477       10.938955069848799       8.567731213915545        9.508999752459313E-5
-10.957024764922632       -11.470093841975684      12.18115575621392        1.5283094416599093E-4
-11.499756910953998       -10.918721656318807      12.187580087154313       1.5108265155218991E-4
-10.92706032844541        -10.855043808511109      12.758031842483346       1.429601847547318E-4
6.12603354918287          8.852792085782127        -16.855259868664117      1.1859912636617467E-4
6.796141129836161         8.433369815832743        -16.813409508269         1.1607655537247857E-4
6.78168998115218          9.099197023741112        -16.4685547186959        1.1945397158830984E-4
2.072117069180311         -6.434840494830677       18.822836094959197       4.226104559947438E-5
2.7575074780287885        -6.742797762050993       18.62607932036947        4.6833634917916674E-5
2.074814242426651         -7.178105769229025       18.551817793013825       5.111806603079074E-5
10.876371040677482        16.277812202238163       4.091134670745813        -1.7631708906726687E-5
11.507183984770283        15.83815817092033        4.091144399010601        -1.885032440692347E-5
11.107596286515424        15.937217182424423       4.756722949260805        -1.6739751039002792E-5
-17.133732184555434       -8.359581858106342       6.045875667390824        1.8759674187411045E-4
-17.47658394300625        -8.085898759422944       5.402523015723151        1.9391158129339784E-4
-17.45587294014028        -7.682210771737357       6.022967504169409        1.867656980682203E-4
-7.983987755275504        -0.6895651007670132      -18.32431279735791       2.4437439640929043E-4
-7.255468940796406        -0.6892777826544639      -18.62479708849139       2.4750549442964937E-4
-7.6536686473017905       9.373040810652591E-16    -18.477590650225732      2.356682012068134E-4
-4.256646759011784        19.433081908499872       2.058223968991076        7.140820878234081E-5
-3.82718806244128         19.58160604838945        1.3832339282943282       6.362958576127194E-5
-3.4730664162670988       19.58644644386492        2.0757951174932443       6.595943854607009E-5
17.05280328708186         0                        10.44997129431894        -9.055069619943356E-7
16.83020438781979         -0.6894708529789318      10.782803448412839       -5.841288809354158E-6
16.629392246050923        0                        11.111404660392013       -6.079447303022712E-6
-6.0978826544559865       11.994280376241154       -14.797062728413401      1.5541508714637592E-4
-6.746310271132324        11.550408485221613       -14.868603214496476      1.576823899836723E-4
-6.100599525856371        11.393334822698076       -15.263505725848706      1.5934630576114352E-4
-12.448773118040043       13.478318915440058       -7.960085870721132       1.4735296953254836E-4
-12.001505739663932       13.507798546867631       -8.57340296487073        1.4797141556455263E-4
-11.91564419990981        13.952310658884212       -7.959299628682258       1.464929596706253E-4
-7.378207194736956        -15.606887556578926      -10.098867232904569      2.6642263600833513E-4
-8.010509564707492        -15.18820542619627       -10.254274837617325      2.7901022230643894E-4
-7.989825289108623        -15.590679873648009      -9.648491743632635       2.7778312304662956E-4
17.00470896274265         -1.3792445613202282      10.437315628670436       3.606143379078468E-7
16.582210145022614        -1.3799728968855558      11.09621473792619        -5.414478270475456E-6
13.788020934116533        -14.340361851462145      2.0602186023558944       1.25746393684739E-4
14.008616829078715        -14.008602174312276      2.741846031035629        1.2237546609518025E-4
14.340362584132102        -13.788021942913614      2.060206751119057        1.2623922350508507E-4
-14.941313723620453       13.277181952163701       0.6881741214906296       1.2145824569327486E-4
-15.172120428012505       12.958215015091154       1.3752910021343248       1.2299901776561506E-4
-15.451054229465132       12.680352502065471       0.6881741214906318       1.21150889987252E-4
4.102523797253856         -14.846228906637158      12.757695158009419       1.0657159097594256E-4
4.773240981107747         -14.471101380427882      12.953894988521856       1.023348408209831E-4
4.770301625775985         -14.973232404554047      12.371197749544365       1.0589060493965159E-4
8.681721677578874         -17.899254527755996      -2.0601932102750395      1.5943891835035762E-4
7.972339848950652         -18.226283288450247      -2.060192908926854       1.608156578350257E-4
8.35337536004609          -18.11987189464656       -1.375268197760857       1.587406448966681E-4
-3.576373536793505        4.126746522673283        19.2400497780782         1.0291281900222053E-5
-2.7941761041809356       3.7891271522535255       19.43798074191039        1.6180641451420037E-6
-3.4287163746250298       3.4203330869027555       19.404773268374367       1.028452088090942E-5
5.558484200470755         3.4572350568980603       -18.898433246025235      1.534848463624441E-4
5.880975184919245         4.143401335498603        -18.66135997850511       1.3655882699602947E-4
5.150785267673364         4.157993565800826        -18.87274491517007       1.43787879919442E-4
8.434931188654858         6.780830514119586        16.818807133130523       -1.8879952556238494E-5
8.016347108099609         7.52389423498346         16.707159979578982       -2.008614639472945E-5
8.694154327537879         7.385937487600599        16.427404175894935       -1.9498386637405643E-5
17.131451532372093        6.109620059267884        -8.31780686992534        7.087007873423908E-5
17.084418852831504        6.7649083660381955       -7.896749157730771       6.578786016131574E-5
16.780698848660936        6.700137674389634        -8.574164757851003       7.153822774987432E-5
-16.58119035796062        -1.3759903054999936      11.098233057214273       1.2547677210004106E-4
-16.74234976400758        -2.0620797261552557      10.744373019521179       1.3169233941656437E-4
-17.00480920358708        -1.3759767761339035      10.437583621755568       1.3028261569561237E-4
-19.233365324636896       -4.283148166686938       3.4252445272215613       1.948930131931595E-4
-19.39840888796373        -3.4371741977367827      3.447834994570094        1.9160721766420992E-4
-19.20004656848909        -3.932572519601242       3.986613242581654        1.859317464356952E-4
15.654918735518336        -9.591186627337127       7.9330106809398835       6.677114562462725E-5
16.052434517161725        -9.426236374601812       7.312004778606777        7.326266134268453E-5
15.666864490071003        -10.041800248879188      7.32882015138603         7.846688551419583E-5
-13.045557559122472       -12.062019273722598      -9.182653157555661       2.709394329356355E-4
-13.02182823934298        -12.52238989419067       -8.58031122063302        2.644327441367733E-4
-12.553305806280742       -12.571940955848067      -9.184814311496345       2.636082316243743E-4
12.893801450163576        13.411554979441899       -7.340304979847          4.108596817226024E-5
13.323466799751154        13.323850272568842       -6.705240215689213       3.21707825749425E-5
12.791845354197402        13.833987302254041       -6.707420350281633       3.0243162500750816E-5
16.14240571431261         3.4263175144968328       11.29969406861884        -1.7051070071842097E-5
16.007077731729964        2.745700366521891        11.67195750453351        -1.8986122810076074E-5
15.68422320779541         3.4255510990226394       11.92772996156588        -1.999654155181347E-5
5.013629138289775         0.6890003600438183       19.34912921471018        -5.872650170274038E-6
5.428808997301494         0                        19.24910472907294        3.0139885546726675E-6
4.668907277118113         0                        19.44739840795353        4.031617823600111E-6
-19.20168396077621        -1.3759100082564508      -5.422379986652467       2.1232537241835004E-4
-18.973689203824634       -1.3759463208062963      -6.172996818315068       2.152411125263914E-4
-19.12642647370091        -0.6882825049516473      -5.805693545089193       2.1235289676772457E-4
-15.89600236085707        -4.7734125163512475      -11.15937461923237       2.667476770985959E-4
-16.32429366114631        -4.77296454769719        -10.523129092198952      2.6288848752550295E-4
-15.96299641385029        -5.43312941517969        -10.754712931980652      2.6417310199966206E-4
-2.0598646289979192       18.2147699044294         -7.998694583423982       1.028131531577483E-4
-2.06082352435239         17.887898350756068       -8.704946811698163       1.0564838728603663E-4
-1.3744908752003069       18.11131104134648        -8.372047969140649       1.0236843767142863E-4
-17.651862689560037       8.99410135815128         -2.741876063614015       1.5570836210501422E-4
-17.544592149525542       9.377782470926718        -2.0602141235284677      1.5117805768982286E-4
-17.899220561038682       8.681785147438575        -2.0602208524828054      1.5451375874359397E-4
12.425831676254196        -5.442079202808373       14.696342439660226       1.9699776468477E-5
12.575223860515942        -6.098868091330191       14.306206795040563       2.9622424776554932E-5
12.00065835045324         -6.097751038641435       14.791944815555665       3.047984868317668E-5
11.37492525474239         -16.320742926170965      2.060200423954936        1.3536295819868097E-4
11.00650740772062         -16.47237261670629       2.7418488397750314       1.3535412223714797E-4
11.644688847676015        -16.02758308938437       2.741861038362421        1.3348440771806172E-4
-1.376053034772381        -11.055602528074157      -16.609639694669294      2.771475254730312E-4
-2.0633767985652334       -10.678767089231409      -16.7841118216333        2.7651841714297116E-4
-2.067791751517758        -11.330425367396721      -16.350709411710792      2.798796794025227E-4
6.294894646647483         -6.742174389113579       -17.74591180791761       2.0713871752439872E-4
5.4822631521672225        -7.184402214083917       -17.84178117668344       2.116129727875551E-4
6.148858200944599         -7.502550149791845       -17.490091025335875      2.1059151033599565E-4
-19.071345315674876       -4.965187057759898       -3.410381992055946       2.1032610162804422E-4
-19.26305034703765        -4.6281219924870625      -2.7414190030256314      2.1009284921358847E-4
-19.067354657501838       -5.377569534558098       -2.741848330239204       2.1372934454574294E-4
-16.76913738120384        -5.431611334354405       9.449530665743383        1.5368713812740102E-4
-16.733672924461942       -4.768268650913445       9.861430146274182        1.4841469925527034E-4
-16.383772568990565       -5.43019149715672        10.103713016104477       1.4875399159431835E-4
16.472346173073532        -11.00653642794412       2.741891211329992        1.0188343136650236E-4
16.320722791917927        -11.37495482823202       2.060196642326066        1.0735443101134226E-4
16.027559690397915        -11.64472424646603       2.741847478343377        1.0730073338537179E-4
9.96429611118451          -17.000630324922824      3.4192647695005522       1.3669932331631418E-4
10.351370786844667        -16.891747729002358      2.741893778577567        1.3706807850272248E-4
9.680103244517358         -17.285178966531248      2.74193166772445         1.3853533041573182E-4
-8.997573830566477        8.528919839536576        15.693985839622277       3.6086820716232727E-5
-8.429431373553923        8.47799955547328         16.03334682017262        3.1555830177110336E-5
-8.812783386999797        7.990265430341661        16.0776399800004         3.8476580614901476E-5
-14.003339741377896       -13.464072008978054      4.756599733486091        2.2981913251260078E-4
-14.375853108319976       -13.289002298128077      4.091120302356494        2.374707884399266E-4
-14.521151235629148       -12.903872752062291      4.7567041941422294       2.2967803413818773E-4
13.940334304715044        -4.775749986928106       -13.522547523863281      1.5448053208542222E-4
14.323063556508528        -4.1066822152892515      -13.341102335970747      1.5071768531692615E-4
13.788493313022112        -4.107334004334861       -13.892705263323586      1.5271482617641943E-4
18.6179340767653          6.456136799133294        3.4191853333942133       1.770033124982474E-5
18.350113583070186        7.182096013304539        3.4191853333941977       1.91369945918633E-5
18.586661342692917        6.856981383763787        2.7418655026753975       1.6907794808134597E-5
-0.5657191780748881       -19.956086886671002      -1.1977303466122253      2.1746495903287707E-4
-3.671107922541887E-15    -19.984580724814453      -0.7851963151813722      2.126468248294388E-4
-3.662614865312366E-15    -19.938346674662554      -1.5691819145568988      2.1205979002598092E-4
-3.4291522769894756       -13.613845726258173      14.244441695021248       1.2270530022925817E-4
-4.1051551613474          -13.795052796902096      13.886836192306236       1.267573304618071E-4
-4.107573631171015        -13.231289144878831      14.42431372471911        1.2386809053733586E-4
13.617361946561264        13.60951263125051        5.417436622257606        -2.0887193644181536E-5
14.003357872815027        13.46404887198043        4.75661184655546         -2.293434535412356E-5
14.139777583359518        13.066994444886946       5.414826504184347        -2.0900648356882407E-5
11.64175668933173         4.777364737775825        15.544976273660115       -1.767550896586447E-5
12.248875292809158        4.775818118937338        15.071715740287802       -2.4747350618317788E-5
12.051257829170517        4.105512036431891        15.424394822928031       -1.8533054507573196E-5
-19.94897376186958        1.2302448705652993       -0.7245297831605653      1.9891442690115146E-4
-19.900425049328945       1.2291759066424297       -1.5691429018959901      1.9919257777559828E-4
-19.87823163201967        1.8048883660986184       -1.2642330361505079      1.9345870062846898E-4
-12.887643254643024       13.418432281285366       7.338550705255967        9.7726580785025E-5
-12.786034805875433       13.83968836001685        6.7067384055557095       9.913009720102546E-5
-12.359077084318926       13.905861480266493       7.3403153961872265       9.700811596404669E-5
17.72208967834592         6.548812258861662        6.560533166660158        1.6130140547097885E-5
18.035849922103992        5.96312221492301         6.256939430522949        2.4963418808985076E-5
17.75663809055008         6.023992570668353        6.95796789513708         1.3420929827267474E-5
-15.444884904831843       -0.6881821559180277      -12.687865683272868      2.6943311888433886E-4
-14.93432002166563        -0.6881605786773554      -13.285048758225592      2.675971855308104E-4
-15.208119312000616       1.8624574636492603E-15   -12.98896096660367       2.5984257605839693E-4
-1.8247675973881214       -0.6992890473474144      19.904301496002873       1.0367663521549339E-5
-1.2412948742239927       -0.4752765892773848      19.955783602728054       2.7282365064934857E-6
-1.184791883791194        -0.9916793706004576      19.9402316992062         3.7253172959769795E-6
18.226283288450194        7.972339848950788        2.060192908926843        9.753556829224265E-6
17.899238695264458        8.68175428346591         2.0601933626406774       4.463121075436488E-7
18.11987189464651         8.353375360046197        1.3752681977608459       6.46061670668517E-6
6.734141429827837         -15.61886583295855       10.521519343474885       1.1170509402284614E-4
7.370841347233996         -15.206712365314967      10.697036826733022       1.0573368946072052E-4
7.372465151592493         -15.618198526512783      10.085565545619541       1.124264645932731E-4
7.396678690866465         15.209229480852388       10.675602228579537       -2.6676250616795996E-5
6.744894560704394         15.621547696265676       10.510644363609526       -1.7085783254208914E-5
7.383103306322389         15.626003005816997       10.065675120446189       -2.164889689619927E-5
-2.062024676613393        17.53548670973975        9.394400464403136        1.6348079838090257E-5
-2.0608209647350453       17.891513256606984       8.69751518193357         2.7060876627371833E-5
-1.3760154633814836       17.772421111426162       9.069047870789335        1.673552036896917E-5
-1.5691819145568933       19.938346674662554       0                        5.200274867286787E-5
-1.9590006796228747       19.892071402006078       -0.6839675977186259      5.7882545091726916E-5
-1.1752333745678483       19.95741320119628        -0.5661137977634312      5.2842913977245E-5
12.115476521259685        -12.57054702065541       -9.756873283193576       1.7297360907336646E-4
11.608959155262822        -13.063810273491917      -9.72465569928552        1.8091192539097754E-4
12.065903507078783        -13.050642957265037      -9.170315750281025       1.719955772220203E-4
5.316811774909437         -18.847061171664123      -4.064455405307667       1.6580995000830734E-4
5.634646838009277         -18.59883462104651       -4.725897348639057       1.685575801981748E-4
4.917748331483568         -18.820964873916058      -4.646184731907278       1.6420948112303512E-4
17.132311259411036        -9.157418909268708       -4.756636398845888       1.2219488502640652E-4
17.147619289311926        -8.748409191279531       -5.424434471053471       1.2168415711284718E-4
16.781178339479457        -9.431077936025044       -5.426492652091869       1.255833451467342E-4
8.002297494653181         13.862484856802183       -11.991444800439913      8.111615912235547E-5
8.613844242972107         13.880751384388493       -11.538042657340677      7.308315399067083E-5
7.997048320126879         14.330348581177747       -11.43189956689144       7.459857215235484E-5
12.620368684578562        -15.37796373637915       -2.060224645012374       1.3985102118367054E-4
12.958215015091135        -15.172120428012521      -1.3752910021343248      1.3553429714884102E-4
13.21437543131845         -14.87063517637914       -2.060216350581286       1.346822139144698E-4
1.376100455408671         -9.712387620107963       17.429167342515175       7.775141157578967E-5
0.6877763979335477        -10.08973316431389       17.254687719555804       8.415526276747154E-5
0.6876857131785178        -9.402820946714375       17.63842528696707        7.791002953936385E-5
-13.512083843453588       -11.556077490301236      9.158638722301117        1.8528061061409237E-4
-13.505753323021796       -12.011252205126022      8.562969557492353        1.887597326400303E-4
-13.959526277561585       -11.471107429999767      8.575856833895468        1.8882706118138467E-4
-8.704042459567255        0.6899628089908006       17.99343202905604        6.150755398709451E-5
-8.306760187202608        1.3761992908119327       18.141218556212653       5.556392281372865E-5
-7.988459757796585        0.6906764369972721       18.322321816774235       5.4600204391640595E-5
18.042314652617176        -6.277463531069932       5.921852209574511        6.600875562190544E-5
18.33705537928482         -5.9490621151333976      5.325510301119137        6.787750134693294E-5
18.07880065291389         -6.667918402901343       5.356848992126788        7.186475504845822E-5
16.754734594636982        -10.725403768296152      2.0602384984009214       1.0263072743427052E-4
-17.976824730337587       2.7500994367984006       -8.32290368215589        2.0727613118460715E-4
-18.29179136241265        2.748973311989768        -7.6061497805350795      1.9231707574077285E-4
-18.217085149754507       2.066181533503854        -7.991789694255063       2.0662285516353626E-4
14.316614237642453        2.0624116021093792       13.812350095259601       -2.310687000007866E-5
14.849578724460416        2.0623422464785506       13.237702072657557       -1.556461858273101E-5
14.636781895824477        1.3759877029267993       13.559914217112839       -1.3450259642934026E-5
-15.182822977787653       -9.325563406035          -9.083818227220531       2.785948560785223E-4
-15.600042132518404       -9.145729257585113       -8.543671447955038       2.7309552586247254E-4
-15.225361060941301       -9.745188791825612       -8.556849652509309       2.7317208745218923E-4
-14.75187988439626        -8.56450270005821        -10.441806997691561      2.788337228092622E-4
-14.769485543845711       -7.980741877122084       -10.870605128551137      2.748977064557208E-4
-15.19513146648913        -7.960953190041978       -10.282567968269026      2.7259003184541483E-4
6.099224886838752         11.997367098517275       14.794006843420815       -2.216220133971868E-5
6.747966678775863         11.559328287883668       14.860917711738495       -1.6588984947341075E-5
6.105210459842814         11.40055615441489        15.256268371101058       -2.3825686822235417E-5
-2.064145258988158        9.319550755794026        -17.575132376741166      1.6620027378696099E-4
-2.7514219586176325       8.913308212533265        -17.691314646289676      1.7146001396204592E-4
-2.0647563234139614       8.616338284480486        -17.930295476994175      1.7026844242591825E-4
-9.843703191871812        16.0598130753282         6.721897905788956        8.734558497953137E-5
-9.404315098939104        16.047808908325553       7.350284808205244        7.785136982460353E-5
-10.017500838474922       15.669435555017683       7.356525425654544        8.1243837147058E-5
0.6908392506960364        18.308866144019056       -8.019236974306864       8.735356401114192E-5
1.379617856014035         18.427514261585312       -7.650057039685199       8.089262674957188E-5
0.6882981546062273        18.61157563285557        -7.289409997582951       8.031732462668329E-5
16.71012241527287         -7.337159362421394       -8.181558614165588       1.3411084279918415E-4
16.64159323861835         -7.911677869162876       -7.775778274550423       1.3593711653420854E-4
17.00611555171349         -7.308813831231332       -7.574514784603041       1.2968927918312006E-4
-13.12198483604667        6.096672825723724        -13.807392745143561      2.2046376645564914E-4
-12.988015063720526       5.442022323737374        -14.201966685375396      2.3052787228337084E-4
-12.56804790798127        6.096181182572038        -14.313655954086018      2.2143979582892832E-4
12.135403456923681        -6.745384628884303       -14.395546851234792      1.6376518299286775E-4
12.565156108831943        -6.098297707189841       -14.315293117333166      1.620795041104099E-4
11.992568994296034        -6.0979340104109845      -14.798428623395196      1.6489818899510228E-4
-15.016663160156076       -12.323718971499167      -4.756656204301795       2.6210825562212415E-4
-14.63929486952858        -12.503754079761295      -5.417303723795328       2.617095053629169E-4
-15.121118175654894       -11.91675089001413       -5.416902559879265       2.596149021018958E-4
18.830227968363886        -2.753652149397154       -6.151415650040789       9.595796851500085E-5
19.03371777369004         -2.0618630043156743      -5.785007231019693       8.79548045195247E-5
18.786956882840215        -2.068176539827305       -6.540099149279804       9.690144549807043E-5
-9.257481686726834        15.112415488277604       9.26897680057429         5.994359912422859E-5
-8.629049335174498        15.173039545805578       9.76311315680324         5.274013037308843E-5
-9.16158348745203         14.743570322602572       9.934411011475156        5.553931544153165E-5
14.521153429365155        -12.903871492402596      -4.756700914330858       1.44519834826689E-4
14.375858920379592        -13.288996569456353      -4.091118487445664       1.4280782890923837E-4
14.886563585805796        -12.714272475031224      -4.0911489873169         1.4036148764122005E-4
-10.342840464790953       14.849636374816273       8.515512354263612        6.755512384730248E-5
-9.920518658293952        14.777943357659863       9.121167670218444        5.847929164629746E-5
-10.491514713664325       14.415213026020107       9.062546685530785        6.304871606892019E-5
2.7464525122768264        -13.97507869866387       14.041159993531855       1.0672434149342558E-4
3.4271121973216587        -13.613519427151964      14.245244497498984       1.0323991967209959E-4
3.426651705945172         -14.165382178183094      13.69671514751459        1.0474481800920025E-4
12.467724018718705        10.406700178823609       11.67289377922789        -2.625061033586621E-5
12.490081582726189        9.813617141466434        12.152809578758326       -2.3101840185821508E-5
11.999442619886171        10.389293084042908       12.16864684449004        -2.3209790487755234E-5
16.017301604031285        -6.737631218802997       9.902038925640916        4.1878833683025596E-5
15.617020299646049        -7.374243513142486       10.086089904879845       4.440082134270472E-5
5.43996626055664          -12.423598806632901      14.69901220408483        9.324788982386777E-5
4.7758181189373445        -12.24887529280913       15.071715740287823       9.475018571406927E-5
5.440888328470267         -11.83100201452291       15.179727452410686       9.126685313433292E-5
14.249748258354414        12.65493551123439        6.066076308457057        -1.7542600930406245E-5
14.641561231107723        12.501656214153995       5.416020367283342        -2.061342163519491E-5
14.732409029074203        12.090317028185025       6.064681224766229        -1.7524729522352348E-5
-5.415993133692237        -19.20353091594639       -1.375288601017819       2.3416539709268048E-4
-6.165710994400193        -18.97610722244581       -1.3752681977608547      2.3408962889500315E-4
-5.802255650736615        -19.127473495794423      -0.6881765988296844      2.318573063209854E-4
7.366435201777699         16.01296091684494        9.450963712426722        -1.3434147167793298E-5
7.94353588048217          16.002987647722488       8.98913922810931         -1.723144588143845E-5
8.004209275920127         15.614523459940772       9.597879504673589        -2.346896789283591E-5
3.434730844202864         9.19577746626901         -17.425277639645817      1.294242596177608E-4
2.7503147780913713        9.607817289583105        -17.32413390479882       1.3292028195826223E-4
2.7514219586176325        8.913308212533261        -17.69131464628968       1.3366325733649937E-4
15.197400552251796        11.499774806928231       6.065821943014437        -1.70151331750559E-5
15.57604375298489         11.316674830643812       5.414769781123946        -1.4250221430148191E-5
15.634260228364129        10.898809731228187       6.065134256904563        -1.2927625788360008E-5
7.345006766446702         -16.013033793960698      -9.467503594629612       2.0636867088311012E-4
7.992393100468345         -15.962897800128314      -9.017069720826411       1.974031755140448E-4
7.993956094753753         -15.605800207187626      -9.620585525241792       2.0569639916592788E-4
5.4397999073278624        -7.237333049693321       17.8333840674184         5.6153889220987583E-5